V -t * -v 1.0a5 -a 0
A -t * -n 1 -p 0 -o 0x7fffffff -c 30 -a 1
A -t * -h 1 -m 1073741823 -s 0
n -t * -a 0 -s 0 -S UP -v circle -c black -i black
n -t * -a 1 -s 1 -S UP -v circle -c black -i black
n -t * -a 2 -s 2 -S UP -v circle -c black -i black
n -t * -a 3 -s 3 -S UP -v circle -c black -i black
n -t * -a 4 -s 4 -S UP -v circle -c black -i black
n -t * -a 5 -s 5 -S UP -v circle -c black -i black
n -t * -a 6 -s 6 -S UP -v circle -c black -i black
n -t * -a 7 -s 7 -S UP -v circle -c black -i black
n -t * -a 8 -s 8 -S UP -v circle -c black -i black
n -t * -a 9 -s 9 -S UP -v circle -c black -i black
n -t * -a 10 -s 10 -S UP -v circle -c black -i black
n -t * -a 11 -s 11 -S UP -v circle -c black -i black
l -t * -s 0 -d 1 -S UP -r 1500000 -D 0.040000000000000001 -c black -o left
l -t * -s 0 -d 2 -S UP -r 10000000 -D 0.02 -c black -o up
l -t * -s 0 -d 3 -S UP -r 10000000 -D 0.02 -c black -o right-up
l -t * -s 0 -d 4 -S UP -r 10000000 -D 0.02 -c black -o right
l -t * -s 0 -d 5 -S UP -r 10000000 -D 0.02 -c black -o right-down
l -t * -s 0 -d 6 -S UP -r 10000000 -D 0.02 -c black -o down
l -t * -s 1 -d 7 -S UP -r 10000000 -D 0.02 -c black -o up
l -t * -s 1 -d 8 -S UP -r 10000000 -D 0.02 -c black -o left-up
l -t * -s 1 -d 9 -S UP -r 10000000 -D 0.02 -c black -o left
l -t * -s 1 -d 10 -S UP -r 10000000 -D 0.02 -c black -o left-down
l -t * -s 1 -d 11 -S UP -r 10000000 -D 0.02 -c black -o down
+ -t 0.1 -s 8 -d 1 -p tcp -e 40 -c 0 -i 0 -a 0 -x {8.0 5.0 0 ------- null}
- -t 0.1 -s 8 -d 1 -p tcp -e 40 -c 0 -i 0 -a 0 -x {8.0 5.0 0 ------- null}
h -t 0.1 -s 8 -d 1 -p tcp -e 40 -c 0 -i 0 -a 0 -x {8.0 5.0 -1 ------- null}
r -t 0.120032 -s 8 -d 1 -p tcp -e 40 -c 0 -i 0 -a 0 -x {8.0 5.0 0 ------- null}
+ -t 0.120032 -s 1 -d 0 -p tcp -e 40 -c 0 -i 0 -a 0 -x {8.0 5.0 0 ------- null}
- -t 0.120032 -s 1 -d 0 -p tcp -e 40 -c 0 -i 0 -a 0 -x {8.0 5.0 0 ------- null}
h -t 0.120032 -s 1 -d 0 -p tcp -e 40 -c 0 -i 0 -a 0 -x {8.0 5.0 -1 ------- null}
r -t 0.160245333333333 -s 1 -d 0 -p tcp -e 40 -c 0 -i 0 -a 0 -x {8.0 5.0 0 ------- null}
+ -t 0.160245333333333 -s 0 -d 5 -p tcp -e 40 -c 0 -i 0 -a 0 -x {8.0 5.0 0 ------- null}
- -t 0.160245333333333 -s 0 -d 5 -p tcp -e 40 -c 0 -i 0 -a 0 -x {8.0 5.0 0 ------- null}
h -t 0.160245333333333 -s 0 -d 5 -p tcp -e 40 -c 0 -i 0 -a 0 -x {8.0 5.0 -1 ------- null}
r -t 0.180277333333333 -s 0 -d 5 -p tcp -e 40 -c 0 -i 0 -a 0 -x {8.0 5.0 0 ------- null}
+ -t 0.180277333333333 -s 5 -d 0 -p ack -e 40 -c 0 -i 1 -a 0 -x {5.0 8.0 0 ------- null}
- -t 0.180277333333333 -s 5 -d 0 -p ack -e 40 -c 0 -i 1 -a 0 -x {5.0 8.0 0 ------- null}
h -t 0.180277333333333 -s 5 -d 0 -p ack -e 40 -c 0 -i 1 -a 0 -x {5.0 8.0 -1 ------- null}
r -t 0.200309333333333 -s 5 -d 0 -p ack -e 40 -c 0 -i 1 -a 0 -x {5.0 8.0 0 ------- null}
+ -t 0.200309333333333 -s 0 -d 1 -p ack -e 40 -c 0 -i 1 -a 0 -x {5.0 8.0 0 ------- null}
- -t 0.200309333333333 -s 0 -d 1 -p ack -e 40 -c 0 -i 1 -a 0 -x {5.0 8.0 0 ------- null}
h -t 0.200309333333333 -s 0 -d 1 -p ack -e 40 -c 0 -i 1 -a 0 -x {5.0 8.0 -1 ------- null}
r -t 0.240522666666667 -s 0 -d 1 -p ack -e 40 -c 0 -i 1 -a 0 -x {5.0 8.0 0 ------- null}
+ -t 0.240522666666667 -s 1 -d 8 -p ack -e 40 -c 0 -i 1 -a 0 -x {5.0 8.0 0 ------- null}
- -t 0.240522666666667 -s 1 -d 8 -p ack -e 40 -c 0 -i 1 -a 0 -x {5.0 8.0 0 ------- null}
h -t 0.240522666666667 -s 1 -d 8 -p ack -e 40 -c 0 -i 1 -a 0 -x {5.0 8.0 -1 ------- null}
r -t 0.260554666666667 -s 1 -d 8 -p ack -e 40 -c 0 -i 1 -a 0 -x {5.0 8.0 0 ------- null}
+ -t 0.260554666666667 -s 8 -d 1 -p tcp -e 1040 -c 0 -i 2 -a 0 -x {8.0 5.0 1 ------- null}
- -t 0.260554666666667 -s 8 -d 1 -p tcp -e 1040 -c 0 -i 2 -a 0 -x {8.0 5.0 1 ------- null}
h -t 0.260554666666667 -s 8 -d 1 -p tcp -e 1040 -c 0 -i 2 -a 0 -x {8.0 5.0 -1 ------- null}
+ -t 0.260554666666667 -s 8 -d 1 -p tcp -e 1040 -c 0 -i 3 -a 0 -x {8.0 5.0 2 ------- null}
- -t 0.261386666666667 -s 8 -d 1 -p tcp -e 1040 -c 0 -i 3 -a 0 -x {8.0 5.0 2 ------- null}
h -t 0.261386666666667 -s 8 -d 1 -p tcp -e 1040 -c 0 -i 3 -a 0 -x {8.0 5.0 -1 ------- null}
r -t 0.281386666666667 -s 8 -d 1 -p tcp -e 1040 -c 0 -i 2 -a 0 -x {8.0 5.0 1 ------- null}
+ -t 0.281386666666667 -s 1 -d 0 -p tcp -e 1040 -c 0 -i 2 -a 0 -x {8.0 5.0 1 ------- null}
- -t 0.281386666666667 -s 1 -d 0 -p tcp -e 1040 -c 0 -i 2 -a 0 -x {8.0 5.0 1 ------- null}
h -t 0.281386666666667 -s 1 -d 0 -p tcp -e 1040 -c 0 -i 2 -a 0 -x {8.0 5.0 -1 ------- null}
r -t 0.282218666666667 -s 8 -d 1 -p tcp -e 1040 -c 0 -i 3 -a 0 -x {8.0 5.0 2 ------- null}
+ -t 0.282218666666667 -s 1 -d 0 -p tcp -e 1040 -c 0 -i 3 -a 0 -x {8.0 5.0 2 ------- null}
- -t 0.286933333333333 -s 1 -d 0 -p tcp -e 1040 -c 0 -i 3 -a 0 -x {8.0 5.0 2 ------- null}
h -t 0.286933333333333 -s 1 -d 0 -p tcp -e 1040 -c 0 -i 3 -a 0 -x {8.0 5.0 -1 ------- null}
r -t 0.326933333333333 -s 1 -d 0 -p tcp -e 1040 -c 0 -i 2 -a 0 -x {8.0 5.0 1 ------- null}
+ -t 0.326933333333333 -s 0 -d 5 -p tcp -e 1040 -c 0 -i 2 -a 0 -x {8.0 5.0 1 ------- null}
- -t 0.326933333333333 -s 0 -d 5 -p tcp -e 1040 -c 0 -i 2 -a 0 -x {8.0 5.0 1 ------- null}
h -t 0.326933333333333 -s 0 -d 5 -p tcp -e 1040 -c 0 -i 2 -a 0 -x {8.0 5.0 -1 ------- null}
r -t 0.33248 -s 1 -d 0 -p tcp -e 1040 -c 0 -i 3 -a 0 -x {8.0 5.0 2 ------- null}
+ -t 0.33248 -s 0 -d 5 -p tcp -e 1040 -c 0 -i 3 -a 0 -x {8.0 5.0 2 ------- null}
- -t 0.33248 -s 0 -d 5 -p tcp -e 1040 -c 0 -i 3 -a 0 -x {8.0 5.0 2 ------- null}
h -t 0.33248 -s 0 -d 5 -p tcp -e 1040 -c 0 -i 3 -a 0 -x {8.0 5.0 -1 ------- null}
r -t 0.347765333333333 -s 0 -d 5 -p tcp -e 1040 -c 0 -i 2 -a 0 -x {8.0 5.0 1 ------- null}
+ -t 0.347765333333333 -s 5 -d 0 -p ack -e 40 -c 0 -i 4 -a 0 -x {5.0 8.0 1 ------- null}
- -t 0.347765333333333 -s 5 -d 0 -p ack -e 40 -c 0 -i 4 -a 0 -x {5.0 8.0 1 ------- null}
h -t 0.347765333333333 -s 5 -d 0 -p ack -e 40 -c 0 -i 4 -a 0 -x {5.0 8.0 -1 ------- null}
r -t 0.353312 -s 0 -d 5 -p tcp -e 1040 -c 0 -i 3 -a 0 -x {8.0 5.0 2 ------- null}
+ -t 0.353312 -s 5 -d 0 -p ack -e 40 -c 0 -i 5 -a 0 -x {5.0 8.0 2 ------- null}
- -t 0.353312 -s 5 -d 0 -p ack -e 40 -c 0 -i 5 -a 0 -x {5.0 8.0 2 ------- null}
h -t 0.353312 -s 5 -d 0 -p ack -e 40 -c 0 -i 5 -a 0 -x {5.0 8.0 -1 ------- null}
r -t 0.367797333333333 -s 5 -d 0 -p ack -e 40 -c 0 -i 4 -a 0 -x {5.0 8.0 1 ------- null}
+ -t 0.367797333333333 -s 0 -d 1 -p ack -e 40 -c 0 -i 4 -a 0 -x {5.0 8.0 1 ------- null}
- -t 0.367797333333333 -s 0 -d 1 -p ack -e 40 -c 0 -i 4 -a 0 -x {5.0 8.0 1 ------- null}
h -t 0.367797333333333 -s 0 -d 1 -p ack -e 40 -c 0 -i 4 -a 0 -x {5.0 8.0 -1 ------- null}
r -t 0.373344 -s 5 -d 0 -p ack -e 40 -c 0 -i 5 -a 0 -x {5.0 8.0 2 ------- null}
+ -t 0.373344 -s 0 -d 1 -p ack -e 40 -c 0 -i 5 -a 0 -x {5.0 8.0 2 ------- null}
- -t 0.373344 -s 0 -d 1 -p ack -e 40 -c 0 -i 5 -a 0 -x {5.0 8.0 2 ------- null}
h -t 0.373344 -s 0 -d 1 -p ack -e 40 -c 0 -i 5 -a 0 -x {5.0 8.0 -1 ------- null}
r -t 0.408010666666667 -s 0 -d 1 -p ack -e 40 -c 0 -i 4 -a 0 -x {5.0 8.0 1 ------- null}
+ -t 0.408010666666667 -s 1 -d 8 -p ack -e 40 -c 0 -i 4 -a 0 -x {5.0 8.0 1 ------- null}
- -t 0.408010666666667 -s 1 -d 8 -p ack -e 40 -c 0 -i 4 -a 0 -x {5.0 8.0 1 ------- null}
h -t 0.408010666666667 -s 1 -d 8 -p ack -e 40 -c 0 -i 4 -a 0 -x {5.0 8.0 -1 ------- null}
r -t 0.413557333333333 -s 0 -d 1 -p ack -e 40 -c 0 -i 5 -a 0 -x {5.0 8.0 2 ------- null}
+ -t 0.413557333333333 -s 1 -d 8 -p ack -e 40 -c 0 -i 5 -a 0 -x {5.0 8.0 2 ------- null}
- -t 0.413557333333333 -s 1 -d 8 -p ack -e 40 -c 0 -i 5 -a 0 -x {5.0 8.0 2 ------- null}
h -t 0.413557333333333 -s 1 -d 8 -p ack -e 40 -c 0 -i 5 -a 0 -x {5.0 8.0 -1 ------- null}
r -t 0.428042666666667 -s 1 -d 8 -p ack -e 40 -c 0 -i 4 -a 0 -x {5.0 8.0 1 ------- null}
+ -t 0.428042666666667 -s 8 -d 1 -p tcp -e 1040 -c 0 -i 6 -a 0 -x {8.0 5.0 3 ------- null}
- -t 0.428042666666667 -s 8 -d 1 -p tcp -e 1040 -c 0 -i 6 -a 0 -x {8.0 5.0 3 ------- null}
h -t 0.428042666666667 -s 8 -d 1 -p tcp -e 1040 -c 0 -i 6 -a 0 -x {8.0 5.0 -1 ------- null}
+ -t 0.428042666666667 -s 8 -d 1 -p tcp -e 1040 -c 0 -i 7 -a 0 -x {8.0 5.0 4 ------- null}
- -t 0.428874666666667 -s 8 -d 1 -p tcp -e 1040 -c 0 -i 7 -a 0 -x {8.0 5.0 4 ------- null}
h -t 0.428874666666667 -s 8 -d 1 -p tcp -e 1040 -c 0 -i 7 -a 0 -x {8.0 5.0 -1 ------- null}
r -t 0.433589333333333 -s 1 -d 8 -p ack -e 40 -c 0 -i 5 -a 0 -x {5.0 8.0 2 ------- null}
+ -t 0.433589333333333 -s 8 -d 1 -p tcp -e 1040 -c 0 -i 8 -a 0 -x {8.0 5.0 5 ------- null}
- -t 0.433589333333333 -s 8 -d 1 -p tcp -e 1040 -c 0 -i 8 -a 0 -x {8.0 5.0 5 ------- null}
h -t 0.433589333333333 -s 8 -d 1 -p tcp -e 1040 -c 0 -i 8 -a 0 -x {8.0 5.0 -1 ------- null}
+ -t 0.433589333333333 -s 8 -d 1 -p tcp -e 1040 -c 0 -i 9 -a 0 -x {8.0 5.0 6 ------- null}
- -t 0.434421333333333 -s 8 -d 1 -p tcp -e 1040 -c 0 -i 9 -a 0 -x {8.0 5.0 6 ------- null}
h -t 0.434421333333333 -s 8 -d 1 -p tcp -e 1040 -c 0 -i 9 -a 0 -x {8.0 5.0 -1 ------- null}
r -t 0.448874666666667 -s 8 -d 1 -p tcp -e 1040 -c 0 -i 6 -a 0 -x {8.0 5.0 3 ------- null}
+ -t 0.448874666666667 -s 1 -d 0 -p tcp -e 1040 -c 0 -i 6 -a 0 -x {8.0 5.0 3 ------- null}
- -t 0.448874666666667 -s 1 -d 0 -p tcp -e 1040 -c 0 -i 6 -a 0 -x {8.0 5.0 3 ------- null}
h -t 0.448874666666667 -s 1 -d 0 -p tcp -e 1040 -c 0 -i 6 -a 0 -x {8.0 5.0 -1 ------- null}
r -t 0.449706666666667 -s 8 -d 1 -p tcp -e 1040 -c 0 -i 7 -a 0 -x {8.0 5.0 4 ------- null}
+ -t 0.449706666666667 -s 1 -d 0 -p tcp -e 1040 -c 0 -i 7 -a 0 -x {8.0 5.0 4 ------- null}
r -t 0.454421333333333 -s 8 -d 1 -p tcp -e 1040 -c 0 -i 8 -a 0 -x {8.0 5.0 5 ------- null}
+ -t 0.454421333333333 -s 1 -d 0 -p tcp -e 1040 -c 0 -i 8 -a 0 -x {8.0 5.0 5 ------- null}
- -t 0.454421333333333 -s 1 -d 0 -p tcp -e 1040 -c 0 -i 7 -a 0 -x {8.0 5.0 4 ------- null}
h -t 0.454421333333333 -s 1 -d 0 -p tcp -e 1040 -c 0 -i 7 -a 0 -x {8.0 5.0 -1 ------- null}
r -t 0.455253333333333 -s 8 -d 1 -p tcp -e 1040 -c 0 -i 9 -a 0 -x {8.0 5.0 6 ------- null}
+ -t 0.455253333333333 -s 1 -d 0 -p tcp -e 1040 -c 0 -i 9 -a 0 -x {8.0 5.0 6 ------- null}
- -t 0.459968 -s 1 -d 0 -p tcp -e 1040 -c 0 -i 8 -a 0 -x {8.0 5.0 5 ------- null}
h -t 0.459968 -s 1 -d 0 -p tcp -e 1040 -c 0 -i 8 -a 0 -x {8.0 5.0 -1 ------- null}
- -t 0.465514666666667 -s 1 -d 0 -p tcp -e 1040 -c 0 -i 9 -a 0 -x {8.0 5.0 6 ------- null}
h -t 0.465514666666667 -s 1 -d 0 -p tcp -e 1040 -c 0 -i 9 -a 0 -x {8.0 5.0 -1 ------- null}
r -t 0.494421333333333 -s 1 -d 0 -p tcp -e 1040 -c 0 -i 6 -a 0 -x {8.0 5.0 3 ------- null}
+ -t 0.494421333333333 -s 0 -d 5 -p tcp -e 1040 -c 0 -i 6 -a 0 -x {8.0 5.0 3 ------- null}
- -t 0.494421333333333 -s 0 -d 5 -p tcp -e 1040 -c 0 -i 6 -a 0 -x {8.0 5.0 3 ------- null}
h -t 0.494421333333333 -s 0 -d 5 -p tcp -e 1040 -c 0 -i 6 -a 0 -x {8.0 5.0 -1 ------- null}
r -t 0.499968 -s 1 -d 0 -p tcp -e 1040 -c 0 -i 7 -a 0 -x {8.0 5.0 4 ------- null}
+ -t 0.499968 -s 0 -d 5 -p tcp -e 1040 -c 0 -i 7 -a 0 -x {8.0 5.0 4 ------- null}
- -t 0.499968 -s 0 -d 5 -p tcp -e 1040 -c 0 -i 7 -a 0 -x {8.0 5.0 4 ------- null}
h -t 0.499968 -s 0 -d 5 -p tcp -e 1040 -c 0 -i 7 -a 0 -x {8.0 5.0 -1 ------- null}
r -t 0.505514666666667 -s 1 -d 0 -p tcp -e 1040 -c 0 -i 8 -a 0 -x {8.0 5.0 5 ------- null}
+ -t 0.505514666666667 -s 0 -d 5 -p tcp -e 1040 -c 0 -i 8 -a 0 -x {8.0 5.0 5 ------- null}
- -t 0.505514666666667 -s 0 -d 5 -p tcp -e 1040 -c 0 -i 8 -a 0 -x {8.0 5.0 5 ------- null}
h -t 0.505514666666667 -s 0 -d 5 -p tcp -e 1040 -c 0 -i 8 -a 0 -x {8.0 5.0 -1 ------- null}
r -t 0.511061333333333 -s 1 -d 0 -p tcp -e 1040 -c 0 -i 9 -a 0 -x {8.0 5.0 6 ------- null}
+ -t 0.511061333333333 -s 0 -d 5 -p tcp -e 1040 -c 0 -i 9 -a 0 -x {8.0 5.0 6 ------- null}
- -t 0.511061333333333 -s 0 -d 5 -p tcp -e 1040 -c 0 -i 9 -a 0 -x {8.0 5.0 6 ------- null}
h -t 0.511061333333333 -s 0 -d 5 -p tcp -e 1040 -c 0 -i 9 -a 0 -x {8.0 5.0 -1 ------- null}
r -t 0.515253333333333 -s 0 -d 5 -p tcp -e 1040 -c 0 -i 6 -a 0 -x {8.0 5.0 3 ------- null}
+ -t 0.515253333333333 -s 5 -d 0 -p ack -e 40 -c 0 -i 10 -a 0 -x {5.0 8.0 3 ------- null}
- -t 0.515253333333333 -s 5 -d 0 -p ack -e 40 -c 0 -i 10 -a 0 -x {5.0 8.0 3 ------- null}
h -t 0.515253333333333 -s 5 -d 0 -p ack -e 40 -c 0 -i 10 -a 0 -x {5.0 8.0 -1 ------- null}
r -t 0.5208 -s 0 -d 5 -p tcp -e 1040 -c 0 -i 7 -a 0 -x {8.0 5.0 4 ------- null}
+ -t 0.5208 -s 5 -d 0 -p ack -e 40 -c 0 -i 11 -a 0 -x {5.0 8.0 4 ------- null}
- -t 0.5208 -s 5 -d 0 -p ack -e 40 -c 0 -i 11 -a 0 -x {5.0 8.0 4 ------- null}
h -t 0.5208 -s 5 -d 0 -p ack -e 40 -c 0 -i 11 -a 0 -x {5.0 8.0 -1 ------- null}
r -t 0.526346666666667 -s 0 -d 5 -p tcp -e 1040 -c 0 -i 8 -a 0 -x {8.0 5.0 5 ------- null}
+ -t 0.526346666666667 -s 5 -d 0 -p ack -e 40 -c 0 -i 12 -a 0 -x {5.0 8.0 5 ------- null}
- -t 0.526346666666667 -s 5 -d 0 -p ack -e 40 -c 0 -i 12 -a 0 -x {5.0 8.0 5 ------- null}
h -t 0.526346666666667 -s 5 -d 0 -p ack -e 40 -c 0 -i 12 -a 0 -x {5.0 8.0 -1 ------- null}
r -t 0.531893333333333 -s 0 -d 5 -p tcp -e 1040 -c 0 -i 9 -a 0 -x {8.0 5.0 6 ------- null}
+ -t 0.531893333333333 -s 5 -d 0 -p ack -e 40 -c 0 -i 13 -a 0 -x {5.0 8.0 6 ------- null}
- -t 0.531893333333333 -s 5 -d 0 -p ack -e 40 -c 0 -i 13 -a 0 -x {5.0 8.0 6 ------- null}
h -t 0.531893333333333 -s 5 -d 0 -p ack -e 40 -c 0 -i 13 -a 0 -x {5.0 8.0 -1 ------- null}
r -t 0.535285333333333 -s 5 -d 0 -p ack -e 40 -c 0 -i 10 -a 0 -x {5.0 8.0 3 ------- null}
+ -t 0.535285333333333 -s 0 -d 1 -p ack -e 40 -c 0 -i 10 -a 0 -x {5.0 8.0 3 ------- null}
- -t 0.535285333333333 -s 0 -d 1 -p ack -e 40 -c 0 -i 10 -a 0 -x {5.0 8.0 3 ------- null}
h -t 0.535285333333333 -s 0 -d 1 -p ack -e 40 -c 0 -i 10 -a 0 -x {5.0 8.0 -1 ------- null}
r -t 0.540832 -s 5 -d 0 -p ack -e 40 -c 0 -i 11 -a 0 -x {5.0 8.0 4 ------- null}
+ -t 0.540832 -s 0 -d 1 -p ack -e 40 -c 0 -i 11 -a 0 -x {5.0 8.0 4 ------- null}
- -t 0.540832 -s 0 -d 1 -p ack -e 40 -c 0 -i 11 -a 0 -x {5.0 8.0 4 ------- null}
h -t 0.540832 -s 0 -d 1 -p ack -e 40 -c 0 -i 11 -a 0 -x {5.0 8.0 -1 ------- null}
r -t 0.546378666666667 -s 5 -d 0 -p ack -e 40 -c 0 -i 12 -a 0 -x {5.0 8.0 5 ------- null}
+ -t 0.546378666666667 -s 0 -d 1 -p ack -e 40 -c 0 -i 12 -a 0 -x {5.0 8.0 5 ------- null}
- -t 0.546378666666667 -s 0 -d 1 -p ack -e 40 -c 0 -i 12 -a 0 -x {5.0 8.0 5 ------- null}
h -t 0.546378666666667 -s 0 -d 1 -p ack -e 40 -c 0 -i 12 -a 0 -x {5.0 8.0 -1 ------- null}
r -t 0.551925333333333 -s 5 -d 0 -p ack -e 40 -c 0 -i 13 -a 0 -x {5.0 8.0 6 ------- null}
+ -t 0.551925333333333 -s 0 -d 1 -p ack -e 40 -c 0 -i 13 -a 0 -x {5.0 8.0 6 ------- null}
- -t 0.551925333333333 -s 0 -d 1 -p ack -e 40 -c 0 -i 13 -a 0 -x {5.0 8.0 6 ------- null}
h -t 0.551925333333333 -s 0 -d 1 -p ack -e 40 -c 0 -i 13 -a 0 -x {5.0 8.0 -1 ------- null}
r -t 0.575498666666667 -s 0 -d 1 -p ack -e 40 -c 0 -i 10 -a 0 -x {5.0 8.0 3 ------- null}
+ -t 0.575498666666667 -s 1 -d 8 -p ack -e 40 -c 0 -i 10 -a 0 -x {5.0 8.0 3 ------- null}
- -t 0.575498666666667 -s 1 -d 8 -p ack -e 40 -c 0 -i 10 -a 0 -x {5.0 8.0 3 ------- null}
h -t 0.575498666666667 -s 1 -d 8 -p ack -e 40 -c 0 -i 10 -a 0 -x {5.0 8.0 -1 ------- null}
r -t 0.581045333333333 -s 0 -d 1 -p ack -e 40 -c 0 -i 11 -a 0 -x {5.0 8.0 4 ------- null}
+ -t 0.581045333333333 -s 1 -d 8 -p ack -e 40 -c 0 -i 11 -a 0 -x {5.0 8.0 4 ------- null}
- -t 0.581045333333333 -s 1 -d 8 -p ack -e 40 -c 0 -i 11 -a 0 -x {5.0 8.0 4 ------- null}
h -t 0.581045333333333 -s 1 -d 8 -p ack -e 40 -c 0 -i 11 -a 0 -x {5.0 8.0 -1 ------- null}
r -t 0.586592 -s 0 -d 1 -p ack -e 40 -c 0 -i 12 -a 0 -x {5.0 8.0 5 ------- null}
+ -t 0.586592 -s 1 -d 8 -p ack -e 40 -c 0 -i 12 -a 0 -x {5.0 8.0 5 ------- null}
- -t 0.586592 -s 1 -d 8 -p ack -e 40 -c 0 -i 12 -a 0 -x {5.0 8.0 5 ------- null}
h -t 0.586592 -s 1 -d 8 -p ack -e 40 -c 0 -i 12 -a 0 -x {5.0 8.0 -1 ------- null}
r -t 0.592138666666667 -s 0 -d 1 -p ack -e 40 -c 0 -i 13 -a 0 -x {5.0 8.0 6 ------- null}
+ -t 0.592138666666667 -s 1 -d 8 -p ack -e 40 -c 0 -i 13 -a 0 -x {5.0 8.0 6 ------- null}
- -t 0.592138666666667 -s 1 -d 8 -p ack -e 40 -c 0 -i 13 -a 0 -x {5.0 8.0 6 ------- null}
h -t 0.592138666666667 -s 1 -d 8 -p ack -e 40 -c 0 -i 13 -a 0 -x {5.0 8.0 -1 ------- null}
r -t 0.595530666666667 -s 1 -d 8 -p ack -e 40 -c 0 -i 10 -a 0 -x {5.0 8.0 3 ------- null}
+ -t 0.595530666666667 -s 8 -d 1 -p tcp -e 1040 -c 0 -i 14 -a 0 -x {8.0 5.0 7 ------- null}
- -t 0.595530666666667 -s 8 -d 1 -p tcp -e 1040 -c 0 -i 14 -a 0 -x {8.0 5.0 7 ------- null}
h -t 0.595530666666667 -s 8 -d 1 -p tcp -e 1040 -c 0 -i 14 -a 0 -x {8.0 5.0 -1 ------- null}
+ -t 0.595530666666667 -s 8 -d 1 -p tcp -e 1040 -c 0 -i 15 -a 0 -x {8.0 5.0 8 ------- null}
- -t 0.596362666666667 -s 8 -d 1 -p tcp -e 1040 -c 0 -i 15 -a 0 -x {8.0 5.0 8 ------- null}
h -t 0.596362666666667 -s 8 -d 1 -p tcp -e 1040 -c 0 -i 15 -a 0 -x {8.0 5.0 -1 ------- null}
r -t 0.601077333333333 -s 1 -d 8 -p ack -e 40 -c 0 -i 11 -a 0 -x {5.0 8.0 4 ------- null}
+ -t 0.601077333333333 -s 8 -d 1 -p tcp -e 1040 -c 0 -i 16 -a 0 -x {8.0 5.0 9 ------- null}
- -t 0.601077333333333 -s 8 -d 1 -p tcp -e 1040 -c 0 -i 16 -a 0 -x {8.0 5.0 9 ------- null}
h -t 0.601077333333333 -s 8 -d 1 -p tcp -e 1040 -c 0 -i 16 -a 0 -x {8.0 5.0 -1 ------- null}
+ -t 0.601077333333333 -s 8 -d 1 -p tcp -e 1040 -c 0 -i 17 -a 0 -x {8.0 5.0 10 ------- null}
- -t 0.601909333333334 -s 8 -d 1 -p tcp -e 1040 -c 0 -i 17 -a 0 -x {8.0 5.0 10 ------- null}
h -t 0.601909333333334 -s 8 -d 1 -p tcp -e 1040 -c 0 -i 17 -a 0 -x {8.0 5.0 -1 ------- null}
r -t 0.606624 -s 1 -d 8 -p ack -e 40 -c 0 -i 12 -a 0 -x {5.0 8.0 5 ------- null}
+ -t 0.606624 -s 8 -d 1 -p tcp -e 1040 -c 0 -i 18 -a 0 -x {8.0 5.0 11 ------- null}
- -t 0.606624 -s 8 -d 1 -p tcp -e 1040 -c 0 -i 18 -a 0 -x {8.0 5.0 11 ------- null}
h -t 0.606624 -s 8 -d 1 -p tcp -e 1040 -c 0 -i 18 -a 0 -x {8.0 5.0 -1 ------- null}
+ -t 0.606624 -s 8 -d 1 -p tcp -e 1040 -c 0 -i 19 -a 0 -x {8.0 5.0 12 ------- null}
- -t 0.607456 -s 8 -d 1 -p tcp -e 1040 -c 0 -i 19 -a 0 -x {8.0 5.0 12 ------- null}
h -t 0.607456 -s 8 -d 1 -p tcp -e 1040 -c 0 -i 19 -a 0 -x {8.0 5.0 -1 ------- null}
r -t 0.612170666666667 -s 1 -d 8 -p ack -e 40 -c 0 -i 13 -a 0 -x {5.0 8.0 6 ------- null}
+ -t 0.612170666666667 -s 8 -d 1 -p tcp -e 1040 -c 0 -i 20 -a 0 -x {8.0 5.0 13 ------- null}
- -t 0.612170666666667 -s 8 -d 1 -p tcp -e 1040 -c 0 -i 20 -a 0 -x {8.0 5.0 13 ------- null}
h -t 0.612170666666667 -s 8 -d 1 -p tcp -e 1040 -c 0 -i 20 -a 0 -x {8.0 5.0 -1 ------- null}
+ -t 0.612170666666667 -s 8 -d 1 -p tcp -e 1040 -c 0 -i 21 -a 0 -x {8.0 5.0 14 ------- null}
- -t 0.613002666666667 -s 8 -d 1 -p tcp -e 1040 -c 0 -i 21 -a 0 -x {8.0 5.0 14 ------- null}
h -t 0.613002666666667 -s 8 -d 1 -p tcp -e 1040 -c 0 -i 21 -a 0 -x {8.0 5.0 -1 ------- null}
r -t 0.616362666666667 -s 8 -d 1 -p tcp -e 1040 -c 0 -i 14 -a 0 -x {8.0 5.0 7 ------- null}
+ -t 0.616362666666667 -s 1 -d 0 -p tcp -e 1040 -c 0 -i 14 -a 0 -x {8.0 5.0 7 ------- null}
- -t 0.616362666666667 -s 1 -d 0 -p tcp -e 1040 -c 0 -i 14 -a 0 -x {8.0 5.0 7 ------- null}
h -t 0.616362666666667 -s 1 -d 0 -p tcp -e 1040 -c 0 -i 14 -a 0 -x {8.0 5.0 -1 ------- null}
r -t 0.617194666666667 -s 8 -d 1 -p tcp -e 1040 -c 0 -i 15 -a 0 -x {8.0 5.0 8 ------- null}
+ -t 0.617194666666667 -s 1 -d 0 -p tcp -e 1040 -c 0 -i 15 -a 0 -x {8.0 5.0 8 ------- null}
r -t 0.621909333333333 -s 8 -d 1 -p tcp -e 1040 -c 0 -i 16 -a 0 -x {8.0 5.0 9 ------- null}
+ -t 0.621909333333333 -s 1 -d 0 -p tcp -e 1040 -c 0 -i 16 -a 0 -x {8.0 5.0 9 ------- null}
- -t 0.621909333333333 -s 1 -d 0 -p tcp -e 1040 -c 0 -i 15 -a 0 -x {8.0 5.0 8 ------- null}
h -t 0.621909333333333 -s 1 -d 0 -p tcp -e 1040 -c 0 -i 15 -a 0 -x {8.0 5.0 -1 ------- null}
r -t 0.622741333333333 -s 8 -d 1 -p tcp -e 1040 -c 0 -i 17 -a 0 -x {8.0 5.0 10 ------- null}
+ -t 0.622741333333333 -s 1 -d 0 -p tcp -e 1040 -c 0 -i 17 -a 0 -x {8.0 5.0 10 ------- null}
r -t 0.627456 -s 8 -d 1 -p tcp -e 1040 -c 0 -i 18 -a 0 -x {8.0 5.0 11 ------- null}
+ -t 0.627456 -s 1 -d 0 -p tcp -e 1040 -c 0 -i 18 -a 0 -x {8.0 5.0 11 ------- null}
- -t 0.627456 -s 1 -d 0 -p tcp -e 1040 -c 0 -i 16 -a 0 -x {8.0 5.0 9 ------- null}
h -t 0.627456 -s 1 -d 0 -p tcp -e 1040 -c 0 -i 16 -a 0 -x {8.0 5.0 -1 ------- null}
r -t 0.628288 -s 8 -d 1 -p tcp -e 1040 -c 0 -i 19 -a 0 -x {8.0 5.0 12 ------- null}
+ -t 0.628288 -s 1 -d 0 -p tcp -e 1040 -c 0 -i 19 -a 0 -x {8.0 5.0 12 ------- null}
r -t 0.633002666666667 -s 8 -d 1 -p tcp -e 1040 -c 0 -i 20 -a 0 -x {8.0 5.0 13 ------- null}
+ -t 0.633002666666667 -s 1 -d 0 -p tcp -e 1040 -c 0 -i 20 -a 0 -x {8.0 5.0 13 ------- null}
- -t 0.633002666666667 -s 1 -d 0 -p tcp -e 1040 -c 0 -i 17 -a 0 -x {8.0 5.0 10 ------- null}
h -t 0.633002666666667 -s 1 -d 0 -p tcp -e 1040 -c 0 -i 17 -a 0 -x {8.0 5.0 -1 ------- null}
r -t 0.633834666666667 -s 8 -d 1 -p tcp -e 1040 -c 0 -i 21 -a 0 -x {8.0 5.0 14 ------- null}
+ -t 0.633834666666667 -s 1 -d 0 -p tcp -e 1040 -c 0 -i 21 -a 0 -x {8.0 5.0 14 ------- null}
- -t 0.638549333333334 -s 1 -d 0 -p tcp -e 1040 -c 0 -i 18 -a 0 -x {8.0 5.0 11 ------- null}
h -t 0.638549333333334 -s 1 -d 0 -p tcp -e 1040 -c 0 -i 18 -a 0 -x {8.0 5.0 -1 ------- null}
- -t 0.644096 -s 1 -d 0 -p tcp -e 1040 -c 0 -i 19 -a 0 -x {8.0 5.0 12 ------- null}
h -t 0.644096 -s 1 -d 0 -p tcp -e 1040 -c 0 -i 19 -a 0 -x {8.0 5.0 -1 ------- null}
- -t 0.649642666666667 -s 1 -d 0 -p tcp -e 1040 -c 0 -i 20 -a 0 -x {8.0 5.0 13 ------- null}
h -t 0.649642666666667 -s 1 -d 0 -p tcp -e 1040 -c 0 -i 20 -a 0 -x {8.0 5.0 -1 ------- null}
- -t 0.655189333333334 -s 1 -d 0 -p tcp -e 1040 -c 0 -i 21 -a 0 -x {8.0 5.0 14 ------- null}
h -t 0.655189333333334 -s 1 -d 0 -p tcp -e 1040 -c 0 -i 21 -a 0 -x {8.0 5.0 -1 ------- null}
r -t 0.661909333333333 -s 1 -d 0 -p tcp -e 1040 -c 0 -i 14 -a 0 -x {8.0 5.0 7 ------- null}
+ -t 0.661909333333333 -s 0 -d 5 -p tcp -e 1040 -c 0 -i 14 -a 0 -x {8.0 5.0 7 ------- null}
- -t 0.661909333333333 -s 0 -d 5 -p tcp -e 1040 -c 0 -i 14 -a 0 -x {8.0 5.0 7 ------- null}
h -t 0.661909333333333 -s 0 -d 5 -p tcp -e 1040 -c 0 -i 14 -a 0 -x {8.0 5.0 -1 ------- null}
r -t 0.667456 -s 1 -d 0 -p tcp -e 1040 -c 0 -i 15 -a 0 -x {8.0 5.0 8 ------- null}
+ -t 0.667456 -s 0 -d 5 -p tcp -e 1040 -c 0 -i 15 -a 0 -x {8.0 5.0 8 ------- null}
- -t 0.667456 -s 0 -d 5 -p tcp -e 1040 -c 0 -i 15 -a 0 -x {8.0 5.0 8 ------- null}
h -t 0.667456 -s 0 -d 5 -p tcp -e 1040 -c 0 -i 15 -a 0 -x {8.0 5.0 -1 ------- null}
r -t 0.673002666666667 -s 1 -d 0 -p tcp -e 1040 -c 0 -i 16 -a 0 -x {8.0 5.0 9 ------- null}
+ -t 0.673002666666667 -s 0 -d 5 -p tcp -e 1040 -c 0 -i 16 -a 0 -x {8.0 5.0 9 ------- null}
- -t 0.673002666666667 -s 0 -d 5 -p tcp -e 1040 -c 0 -i 16 -a 0 -x {8.0 5.0 9 ------- null}
h -t 0.673002666666667 -s 0 -d 5 -p tcp -e 1040 -c 0 -i 16 -a 0 -x {8.0 5.0 -1 ------- null}
r -t 0.678549333333333 -s 1 -d 0 -p tcp -e 1040 -c 0 -i 17 -a 0 -x {8.0 5.0 10 ------- null}
+ -t 0.678549333333333 -s 0 -d 5 -p tcp -e 1040 -c 0 -i 17 -a 0 -x {8.0 5.0 10 ------- null}
- -t 0.678549333333333 -s 0 -d 5 -p tcp -e 1040 -c 0 -i 17 -a 0 -x {8.0 5.0 10 ------- null}
h -t 0.678549333333333 -s 0 -d 5 -p tcp -e 1040 -c 0 -i 17 -a 0 -x {8.0 5.0 -1 ------- null}
r -t 0.682741333333333 -s 0 -d 5 -p tcp -e 1040 -c 0 -i 14 -a 0 -x {8.0 5.0 7 ------- null}
+ -t 0.682741333333333 -s 5 -d 0 -p ack -e 40 -c 0 -i 22 -a 0 -x {5.0 8.0 7 ------- null}
- -t 0.682741333333333 -s 5 -d 0 -p ack -e 40 -c 0 -i 22 -a 0 -x {5.0 8.0 7 ------- null}
h -t 0.682741333333333 -s 5 -d 0 -p ack -e 40 -c 0 -i 22 -a 0 -x {5.0 8.0 -1 ------- null}
r -t 0.684096 -s 1 -d 0 -p tcp -e 1040 -c 0 -i 18 -a 0 -x {8.0 5.0 11 ------- null}
+ -t 0.684096 -s 0 -d 5 -p tcp -e 1040 -c 0 -i 18 -a 0 -x {8.0 5.0 11 ------- null}
- -t 0.684096 -s 0 -d 5 -p tcp -e 1040 -c 0 -i 18 -a 0 -x {8.0 5.0 11 ------- null}
h -t 0.684096 -s 0 -d 5 -p tcp -e 1040 -c 0 -i 18 -a 0 -x {8.0 5.0 -1 ------- null}
r -t 0.688288 -s 0 -d 5 -p tcp -e 1040 -c 0 -i 15 -a 0 -x {8.0 5.0 8 ------- null}
+ -t 0.688288 -s 5 -d 0 -p ack -e 40 -c 0 -i 23 -a 0 -x {5.0 8.0 8 ------- null}
- -t 0.688288 -s 5 -d 0 -p ack -e 40 -c 0 -i 23 -a 0 -x {5.0 8.0 8 ------- null}
h -t 0.688288 -s 5 -d 0 -p ack -e 40 -c 0 -i 23 -a 0 -x {5.0 8.0 -1 ------- null}
r -t 0.689642666666667 -s 1 -d 0 -p tcp -e 1040 -c 0 -i 19 -a 0 -x {8.0 5.0 12 ------- null}
+ -t 0.689642666666667 -s 0 -d 5 -p tcp -e 1040 -c 0 -i 19 -a 0 -x {8.0 5.0 12 ------- null}
- -t 0.689642666666667 -s 0 -d 5 -p tcp -e 1040 -c 0 -i 19 -a 0 -x {8.0 5.0 12 ------- null}
h -t 0.689642666666667 -s 0 -d 5 -p tcp -e 1040 -c 0 -i 19 -a 0 -x {8.0 5.0 -1 ------- null}
r -t 0.693834666666667 -s 0 -d 5 -p tcp -e 1040 -c 0 -i 16 -a 0 -x {8.0 5.0 9 ------- null}
+ -t 0.693834666666667 -s 5 -d 0 -p ack -e 40 -c 0 -i 24 -a 0 -x {5.0 8.0 9 ------- null}
- -t 0.693834666666667 -s 5 -d 0 -p ack -e 40 -c 0 -i 24 -a 0 -x {5.0 8.0 9 ------- null}
h -t 0.693834666666667 -s 5 -d 0 -p ack -e 40 -c 0 -i 24 -a 0 -x {5.0 8.0 -1 ------- null}
r -t 0.695189333333334 -s 1 -d 0 -p tcp -e 1040 -c 0 -i 20 -a 0 -x {8.0 5.0 13 ------- null}
+ -t 0.695189333333334 -s 0 -d 5 -p tcp -e 1040 -c 0 -i 20 -a 0 -x {8.0 5.0 13 ------- null}
- -t 0.695189333333334 -s 0 -d 5 -p tcp -e 1040 -c 0 -i 20 -a 0 -x {8.0 5.0 13 ------- null}
h -t 0.695189333333334 -s 0 -d 5 -p tcp -e 1040 -c 0 -i 20 -a 0 -x {8.0 5.0 -1 ------- null}
r -t 0.699381333333333 -s 0 -d 5 -p tcp -e 1040 -c 0 -i 17 -a 0 -x {8.0 5.0 10 ------- null}
+ -t 0.699381333333333 -s 5 -d 0 -p ack -e 40 -c 0 -i 25 -a 0 -x {5.0 8.0 10 ------- null}
- -t 0.699381333333333 -s 5 -d 0 -p ack -e 40 -c 0 -i 25 -a 0 -x {5.0 8.0 10 ------- null}
h -t 0.699381333333333 -s 5 -d 0 -p ack -e 40 -c 0 -i 25 -a 0 -x {5.0 8.0 -1 ------- null}
r -t 0.700736 -s 1 -d 0 -p tcp -e 1040 -c 0 -i 21 -a 0 -x {8.0 5.0 14 ------- null}
+ -t 0.700736 -s 0 -d 5 -p tcp -e 1040 -c 0 -i 21 -a 0 -x {8.0 5.0 14 ------- null}
- -t 0.700736 -s 0 -d 5 -p tcp -e 1040 -c 0 -i 21 -a 0 -x {8.0 5.0 14 ------- null}
h -t 0.700736 -s 0 -d 5 -p tcp -e 1040 -c 0 -i 21 -a 0 -x {8.0 5.0 -1 ------- null}
r -t 0.702773333333333 -s 5 -d 0 -p ack -e 40 -c 0 -i 22 -a 0 -x {5.0 8.0 7 ------- null}
+ -t 0.702773333333333 -s 0 -d 1 -p ack -e 40 -c 0 -i 22 -a 0 -x {5.0 8.0 7 ------- null}
- -t 0.702773333333333 -s 0 -d 1 -p ack -e 40 -c 0 -i 22 -a 0 -x {5.0 8.0 7 ------- null}
h -t 0.702773333333333 -s 0 -d 1 -p ack -e 40 -c 0 -i 22 -a 0 -x {5.0 8.0 -1 ------- null}
r -t 0.704928 -s 0 -d 5 -p tcp -e 1040 -c 0 -i 18 -a 0 -x {8.0 5.0 11 ------- null}
+ -t 0.704928 -s 5 -d 0 -p ack -e 40 -c 0 -i 26 -a 0 -x {5.0 8.0 11 ------- null}
- -t 0.704928 -s 5 -d 0 -p ack -e 40 -c 0 -i 26 -a 0 -x {5.0 8.0 11 ------- null}
h -t 0.704928 -s 5 -d 0 -p ack -e 40 -c 0 -i 26 -a 0 -x {5.0 8.0 -1 ------- null}
r -t 0.70832 -s 5 -d 0 -p ack -e 40 -c 0 -i 23 -a 0 -x {5.0 8.0 8 ------- null}
+ -t 0.70832 -s 0 -d 1 -p ack -e 40 -c 0 -i 23 -a 0 -x {5.0 8.0 8 ------- null}
- -t 0.70832 -s 0 -d 1 -p ack -e 40 -c 0 -i 23 -a 0 -x {5.0 8.0 8 ------- null}
h -t 0.70832 -s 0 -d 1 -p ack -e 40 -c 0 -i 23 -a 0 -x {5.0 8.0 -1 ------- null}
r -t 0.710474666666667 -s 0 -d 5 -p tcp -e 1040 -c 0 -i 19 -a 0 -x {8.0 5.0 12 ------- null}
+ -t 0.710474666666667 -s 5 -d 0 -p ack -e 40 -c 0 -i 27 -a 0 -x {5.0 8.0 12 ------- null}
- -t 0.710474666666667 -s 5 -d 0 -p ack -e 40 -c 0 -i 27 -a 0 -x {5.0 8.0 12 ------- null}
h -t 0.710474666666667 -s 5 -d 0 -p ack -e 40 -c 0 -i 27 -a 0 -x {5.0 8.0 -1 ------- null}
r -t 0.713866666666667 -s 5 -d 0 -p ack -e 40 -c 0 -i 24 -a 0 -x {5.0 8.0 9 ------- null}
+ -t 0.713866666666667 -s 0 -d 1 -p ack -e 40 -c 0 -i 24 -a 0 -x {5.0 8.0 9 ------- null}
- -t 0.713866666666667 -s 0 -d 1 -p ack -e 40 -c 0 -i 24 -a 0 -x {5.0 8.0 9 ------- null}
h -t 0.713866666666667 -s 0 -d 1 -p ack -e 40 -c 0 -i 24 -a 0 -x {5.0 8.0 -1 ------- null}
r -t 0.716021333333334 -s 0 -d 5 -p tcp -e 1040 -c 0 -i 20 -a 0 -x {8.0 5.0 13 ------- null}
+ -t 0.716021333333334 -s 5 -d 0 -p ack -e 40 -c 0 -i 28 -a 0 -x {5.0 8.0 13 ------- null}
- -t 0.716021333333334 -s 5 -d 0 -p ack -e 40 -c 0 -i 28 -a 0 -x {5.0 8.0 13 ------- null}
h -t 0.716021333333334 -s 5 -d 0 -p ack -e 40 -c 0 -i 28 -a 0 -x {5.0 8.0 -1 ------- null}
r -t 0.719413333333333 -s 5 -d 0 -p ack -e 40 -c 0 -i 25 -a 0 -x {5.0 8.0 10 ------- null}
+ -t 0.719413333333333 -s 0 -d 1 -p ack -e 40 -c 0 -i 25 -a 0 -x {5.0 8.0 10 ------- null}
- -t 0.719413333333333 -s 0 -d 1 -p ack -e 40 -c 0 -i 25 -a 0 -x {5.0 8.0 10 ------- null}
h -t 0.719413333333333 -s 0 -d 1 -p ack -e 40 -c 0 -i 25 -a 0 -x {5.0 8.0 -1 ------- null}
r -t 0.721568 -s 0 -d 5 -p tcp -e 1040 -c 0 -i 21 -a 0 -x {8.0 5.0 14 ------- null}
+ -t 0.721568 -s 5 -d 0 -p ack -e 40 -c 0 -i 29 -a 0 -x {5.0 8.0 14 ------- null}
- -t 0.721568 -s 5 -d 0 -p ack -e 40 -c 0 -i 29 -a 0 -x {5.0 8.0 14 ------- null}
h -t 0.721568 -s 5 -d 0 -p ack -e 40 -c 0 -i 29 -a 0 -x {5.0 8.0 -1 ------- null}
r -t 0.72496 -s 5 -d 0 -p ack -e 40 -c 0 -i 26 -a 0 -x {5.0 8.0 11 ------- null}
+ -t 0.72496 -s 0 -d 1 -p ack -e 40 -c 0 -i 26 -a 0 -x {5.0 8.0 11 ------- null}
- -t 0.72496 -s 0 -d 1 -p ack -e 40 -c 0 -i 26 -a 0 -x {5.0 8.0 11 ------- null}
h -t 0.72496 -s 0 -d 1 -p ack -e 40 -c 0 -i 26 -a 0 -x {5.0 8.0 -1 ------- null}
r -t 0.730506666666667 -s 5 -d 0 -p ack -e 40 -c 0 -i 27 -a 0 -x {5.0 8.0 12 ------- null}
+ -t 0.730506666666667 -s 0 -d 1 -p ack -e 40 -c 0 -i 27 -a 0 -x {5.0 8.0 12 ------- null}
- -t 0.730506666666667 -s 0 -d 1 -p ack -e 40 -c 0 -i 27 -a 0 -x {5.0 8.0 12 ------- null}
h -t 0.730506666666667 -s 0 -d 1 -p ack -e 40 -c 0 -i 27 -a 0 -x {5.0 8.0 -1 ------- null}
r -t 0.736053333333334 -s 5 -d 0 -p ack -e 40 -c 0 -i 28 -a 0 -x {5.0 8.0 13 ------- null}
+ -t 0.736053333333334 -s 0 -d 1 -p ack -e 40 -c 0 -i 28 -a 0 -x {5.0 8.0 13 ------- null}
- -t 0.736053333333334 -s 0 -d 1 -p ack -e 40 -c 0 -i 28 -a 0 -x {5.0 8.0 13 ------- null}
h -t 0.736053333333334 -s 0 -d 1 -p ack -e 40 -c 0 -i 28 -a 0 -x {5.0 8.0 -1 ------- null}
r -t 0.7416 -s 5 -d 0 -p ack -e 40 -c 0 -i 29 -a 0 -x {5.0 8.0 14 ------- null}
+ -t 0.7416 -s 0 -d 1 -p ack -e 40 -c 0 -i 29 -a 0 -x {5.0 8.0 14 ------- null}
- -t 0.7416 -s 0 -d 1 -p ack -e 40 -c 0 -i 29 -a 0 -x {5.0 8.0 14 ------- null}
h -t 0.7416 -s 0 -d 1 -p ack -e 40 -c 0 -i 29 -a 0 -x {5.0 8.0 -1 ------- null}
r -t 0.742986666666667 -s 0 -d 1 -p ack -e 40 -c 0 -i 22 -a 0 -x {5.0 8.0 7 ------- null}
+ -t 0.742986666666667 -s 1 -d 8 -p ack -e 40 -c 0 -i 22 -a 0 -x {5.0 8.0 7 ------- null}